# OOMMF: rectangular mesh v1.0
# Segment count: 1
# Begin: Segment
# Begin: Header
# Title: 
# meshunit: m
# valueunit: (none)
# valuemultiplier: 500000.0000000001
# xmin: 0
# ymin: 0
# zmin: 0
# xmax: 3.99e-07
# ymax: 1.8e-07
# zmax: 2e-09
# ValueRangeMaxMag: 1
# ValueRangeMinMag: 0
# meshtype: rectangular
# xbase: 1.5e-09
# ybase: 1.5e-09
# zbase: 1e-09
# xstepsize: 3e-09
# ystepsize: 3e-09
# zstepsize: 2e-09
# xnodes: 133
# ynodes: 60
# znodes: 1
# End: Header
# Begin: Data Text
0.3591291026727404 0.3591017714736211 0.8614361295754778
0.2558734534278644 0.358856093210653 0.8976363852899931
0.1808321383147728 0.360899057317683 0.9149052454651873
0.1273264786582023 0.3639959087130096 0.922656461676117
0.08953473618404334 0.3674189751384045 0.9257358304206973
0.06295638086138644 0.3707508426399777 0.9265960861079556
0.04429696610822346 0.373773071004031 0.9264618017953155
0.03120364548942215 0.3763931846386858 0.925934394579723
0.02201483445887585 0.3785945089770357 0.9253007861426386
0.01556300897658573 0.3804023711539717 0.92469012581082
0.01102962856204808 0.3818622297702534 0.9241534422208648
0.00784128267808407 0.3830263405744795 0.9237041391658287
0.005596326388957028 0.3839461048984181 0.9233385455315297
0.004013431791701557 0.3846681347596199 0.9230462168633853
0.002895438263873913 0.3852327058471708 0.9228149211965131
0.002104137991342453 0.3856734020026388 0.9226329712247573
0.001542625315484698 0.3860175384487043 0.9224901518808418
0.001142874218062081 0.3862869456554346 0.9223779536907398
0.0008571202729777698 0.3864987756531797 0.9222895216597823
0.0006518144522871573 0.3866663533298405 0.9222194458698659
0.000503356057633302 0.3867999733078063 0.9221635035511647
0.0003951546895112299 0.3869074468740939 0.9221184692902215
0.0003155086347215245 0.3869947465731487 0.9220818654431314
0.0002561825409907687 0.3870663818584295 0.92205181546675
0.0002113759993229518 0.3871257221174271 0.9220269142466759
0.0001769890426847907 0.3871753590980822 0.9220060791459833
0.0001501359223632711 0.3872172385123521 0.9219884964890139
0.0001287833084902688 0.3872528296596109 0.9219735513210144
0.0001114849343729609 0.3872832982940591 0.9219607553652073
9.721496149632813e-05 0.3873095252735022 0.9219497395095163
8.524474810701473e-05 0.3873322232020676 0.9219402050039233
7.503772386763038e-05 0.3873519547670388 0.9219319158742111
6.620418061950478e-05 0.3873691496566701 0.9219246918871813
5.846003255312305e-05 0.3873841839406623 0.9219183752453637
5.158823344259489e-05 0.3873973180708365 0.9219128566682302
4.539662502999749e-05 0.3874087787622533 0.9219080410090181
3.974486284573e-05 0.3874187137756705 0.9219038662662992
3.452235053827049e-05 0.3874272299376971 0.9219002876184654
2.96440253832366e-05 0.3874344318391421 0.9218972611667269
2.50488288148355e-05 0.387440374436258 0.9218947638582444
2.068247623174104e-05 0.3874451264274509 0.921892766855154
1.650307193072027e-05 0.3874487334167406 0.9218912510168493
1.245957073626163e-05 0.3874512441177173 0.9218901958890723
8.526863031216964e-06 0.3874527189061489 0.9218895761095929
4.70586155208875e-06 0.3874531999138092 0.9218893739784639
9.650199039275233e-07 0.3874527317821983 0.921889570736962
-2.700054354950706e-06 0.3874513308703663 0.9218901595089791
-6.281275512147414e-06 0.3874490006860188 0.9218911388162652
-9.798125332230581e-06 0.3874457498869932 0.9218925050126515
-1.324380932981723e-05 0.387441530024272 0.9218942784490269
-1.662495336218941e-05 0.3874362740698072 0.921896487279627
-1.989213192125879e-05 0.3874299263586173 0.9218991548786988
-2.300255139422325e-05 0.3874224172702739 0.9219023104794454
-2.593691226323445e-05 0.3874137785382192 0.9219059407152205
-2.86401094104241e-05 0.3874040564702048 0.9219100260926627
-3.109728581651063e-05 0.3873932904808942 0.9219145500117374
-3.324017523083931e-05 0.3873816130923743 0.9219194567493627
-3.503643604931609e-05 0.3873692338438481 0.921924658225214
-3.644619583294396e-05 0.3873564118950878 0.921930045521588
-3.74304744703046e-05 0.3873434459473904 0.9219354931233313
-3.796324099019684e-05 0.3873307034334189 0.9219408466580515
-3.805728007480912e-05 0.387318449560216 0.921945994720902
-3.7787175310803e-05 0.3873069681499881 0.9219508180996386
-3.717024259111437e-05 0.3872966179700207 0.9219551661156612
-3.62978066592491e-05 0.3872874850267968 0.9219590026807521
-3.522800192120484e-05 0.3872795944989483 0.9219623172579872
-3.407178170024822e-05 0.3872731425092713 0.9219650274983898
-3.302590786504079e-05 0.3872680301655718 0.9219671749693514
-3.219902291038292e-05 0.3872639286929968 0.9219688977923756
-3.168554551343543e-05 0.3872607161095014 0.9219702472175456
-3.174973677604954e-05 0.3872580970407955 0.9219713473141644
-3.241368091301358e-05 0.387255659061409 0.9219723713182877
-3.375031165472612e-05 0.3872530189297506 0.9219734801992464
-3.585571987832451e-05 0.3872497596082053 0.9219748491134419
-3.871647409523977e-05 0.3872454433630038 0.9219766619039903
-4.223235658112639e-05 0.3872396755148093 0.9219790843200364
-4.634458513683946e-05 0.3872321321681757 0.9219822523610025
-5.094618720519598e-05 0.387222496309248 0.9219862991154044
-5.588638664592596e-05 0.3872104814097167 0.9219913448417868
-6.095768271545864e-05 0.3871959442538444 0.9219974495829878
-6.598114847455354e-05 0.387178780247057 0.9220046571318871
-7.070476718347119e-05 0.3871589899958494 0.9220129670813905
-7.494509121804247e-05 0.3871367048348435 0.9220223241076391
-7.843606713338733e-05 0.3871121833596947 0.9220326194567483
-8.100445324076466e-05 0.3870857586420739 0.9220437131149305
-8.244551908696662e-05 0.3870579420109722 0.9220553902716293
-8.25750672824553e-05 0.3870292904082492 0.922067417029495
-8.131512604597207e-05 0.3870005425439834 0.9220794832651426
-7.860321891288286e-05 0.3869723784884952 0.9220913035640723
-7.443738270508226e-05 0.3869456172466121 0.9221025342947031
-6.888754666341974e-05 0.386920965477339 0.9221128790601447
-6.217781135361901e-05 0.3868991931354875 0.9221220149660392
-5.451772018956636e-05 0.3868808074324991 0.9221297294134894
-4.621005152168953e-05 0.3868663383323624 0.9221358002647663
-3.770853002011974e-05 0.3868560444305236 0.9221401192148809
-2.936003528727048e-05 0.3868499768692416 0.9221426649571394
-2.167053424451801e-05 0.3868480351933932 0.9221434797239521
-1.507746119316337e-05 0.3868498877101411 0.9221427027045872
-9.965863998062162e-06 0.3868549534271425 0.9221405776287932
-6.758999823582872e-06 0.3868625550130921 0.9221373886157407
-5.813062627844311e-06 0.3868717713485966 0.922133522056219
-7.467930390536398e-06 0.3868816208313045 0.9221293897318165
-1.204292066878743e-05 0.3868909425719048 0.92212547866914
-1.993531086989573e-05 0.3868985854413729 0.9221222718197666
-3.162217135737226e-05 0.3869032562929529 0.9221203117109759
-4.774234594245395e-05 0.3869036008138819 0.9221201664630917
-6.917945949460645e-05 0.3868982419666772 0.9221224135532637
-9.722407429749805e-05 0.3868855150285835 0.9221277508070923
-0.0001337384064208898 0.3868636570114399 0.9221369166223491
-0.0001813871489380099 0.3868304089281974 0.9221508563283697
-0.0002441051697408676 0.3867831163221008 0.9221706790723884
-0.0003274243262619673 0.3867182458545474 0.9221978589849859
-0.0004394570412730323 0.3866313035140849 0.9222342663447872
-0.000591680720048227 0.3865162990044714 0.9222823865377735
-0.0008006598275226418 0.3863654837760497 0.9223454189675034
-0.001089804894489114 0.3861685927745823 0.9224275745443595
-0.001492781301323834 0.3859124534344602 0.9225341998474536
-0.002057252772608184 0.3855799425466373 0.9226721387452647
-0.002851315289373398 0.3851493914542856 0.9228498340811001
-0.003971914696463103 0.384593633975041 0.9230774401963877
-0.005557257739317492 0.3838791919983389 0.9233666026216896
-0.007804482291547066 0.3829660756285193 0.9237294381873145
-0.01099503683185443 0.3818077308470439 0.9241763716036551
-0.01553044412035029 0.380352815451573 0.9247110581600534
-0.02198398670015563 0.3785494123035101 0.9253199699419841
-0.03117419434972338 0.3763521436537964 0.9259520687237744
-0.04426849843696432 0.3737356109864327 0.9264782745033656
-0.06292838108313283 0.370716557529623 0.9266117055313091
-0.08950676437695375 0.3673875116224639 0.9257510223783834
-0.1272981749807289 0.3639668215735634 0.9226718416859881
-0.1808032856350447 0.3608718423656858 0.9149216825997556
-0.2558444630196955 0.3588301756038612 0.897655009353964
-0.3591013250507498 0.3590764091786633 0.861458281472848
0.3588780933198442 0.2558395204547405 0.8976372618761997
0.254686545778771 0.2546574130667064 0.9328903286932769
0.1798718188925414 0.2554635171473741 0.9499392192003558
0.1267150382126784 0.2575614218894718 0.9579172266146133
0.08919173889259419 0.2602650369012989 0.9614088330570301
0.06278898807335988 0.2630956984880893 0.962724361597746
0.04423563137883963 0.2657714276415609 0.963020642128652
0.03120220279845378 0.2681518658182377 0.9628712267996805
0.02204436417928883 0.2701869870154726 0.9625554727159528
0.01560620407203139 0.2718793243209408 0.9622048011734562
0.0110766042571561 0.2732587773284622 0.9618767849631698
0.007886749182433345 0.2743669112415784 0.9615927397828503
0.005637772357817996 0.2752477775973464 0.9613567893610379
0.004049929239248338 0.2759429306999807 0.9611654889090964
0.002926956200142939 0.2764890649189353 0.9610126065289959
0.002131092317096371 0.2769172545389553 0.9608914051983933
0.001565580453428567 0.2772530787839971 0.96079564906521
0.001162428921192185 0.2775171201022473 0.9607199887631971
0.000873837432779109 0.2777256604320531 0.9606600303675179
0.0006661740286250262 0.2778913990381849 0.9606122665012996
0.0005157574977209808 0.2780241514547891 0.9605739457231013
0.000405916022218846 0.2781314352002957 0.9605429402091331
0.0003248910403749192 0.2782189666537399 0.960517621410423
0.0002643826230285296 0.2782910720188501 0.9604967513409024
0.000218544645927108 0.2783510389857071 0.9604793862097273
0.000183263739234094 0.2784013478781694 0.9604648124288676
0.0001556254545899103 0.2784438804259875 0.9604524877546186
0.0001335680754585019 0.2784800933299713 0.9604419918862874
0.0001156458966423134 0.2785111131117647 0.9604329994847489
0.0001008316458733585 0.2785378192925865 0.9604252563613209
8.838024756925782e-05 0.2785609150883523 0.9604185591574493
7.774634635286444e-05 0.2785809624467737 0.9604127452911767
6.853749195933251e-05 0.2785984069615999 0.9604076857986252
6.045094198562993e-05 0.2786136125800823 0.9604032753123861
5.325839849288733e-05 0.2786268636887586 0.9603994314838533
4.677530791334385e-05 0.2786383850686714 0.9603960892144413
4.085466940782252e-05 0.2786483341228743 0.9603932029233873
3.539184425243383e-05 0.2786568278962802 0.9603907387174242
3.030051351737701e-05 0.278663962016251 0.9603886689019629
2.549786685712587e-05 0.2786698075110433 0.960386972908117
2.090976067255487e-05 0.2786744287084927 0.9603856321013851
1.649712382236314e-05 0.2786778728120963 0.9603846328074859
1.224727768229472e-05 0.2786801845248152 0.9603839620710138
8.131149955066043e-06 0.2786814112585166 0.9603836061454015
4.111526562438905e-06 0.2786815991251707 0.960383551656385
1.654933350854525e-07 0.2786807743222809 0.9603837910039434
-3.713945524503736e-06 0.2786789511871873 0.9603843200257985
-7.535212475783837e-06 0.2786761334411379 0.9603851376367282
-1.131472915358155e-05 0.2786722959370326 0.960386251124598
-1.50426075520023e-05 0.2786673866195535 0.9603876755812454
-1.870857495904674e-05 0.2786613294971406 0.9603894330389496
-2.228924609103427e-05 0.2786540579452423 0.9603915428062861
-2.573003877876276e-05 0.2786455396371568 0.9603940142349296
-2.897388292647415e-05 0.2786357713634981 0.9603968482232654
-3.198394072748592e-05 0.2786247773496991 0.9604000377050482
-3.472752483651659e-05 0.278612636493722 0.9604035597497624
-3.711724597454204e-05 0.2785994967571886 0.9604073713945301
-3.907956399098788e-05 0.2785855809809705 0.9604114079613393
-4.054562602279767e-05 0.2785711841144314 0.9604155838683249
-4.147971943622883e-05 0.2785566287192001 0.9604198055413196
-4.189583062378858e-05 0.2785422860846203 0.9604239652921478
-4.179785950836688e-05 0.2785285440410789 0.9604279506591294
-4.119101837958693e-05 0.2785156949332777 0.9604316768928088
-4.013613593977867e-05 0.2785039893957943 0.960435071350332
-3.875994372135045e-05 0.2784937511830356 0.9604380401929463
-3.717979637273266e-05 0.2784851798995557 0.960440525589156
-3.555442231872711e-05 0.2784781741338695 0.9604425569845126
-3.402856696111925e-05 0.2784726005110714 0.9604441730817348
-3.27763950143435e-05 0.2784684364529025 0.9604453804486661
-3.200341980490231e-05 0.2784654719017824 0.9604462400021661
-3.186569978118585e-05 0.2784632176223357 0.9604468935948475
-3.246588664090878e-05 0.2784612548267385 0.9604474626476369
-3.395331992821734e-05 0.2784591474070806 0.9604480735950763
-3.631027314024934e-05 0.2784563867753914 0.9604488738842673
-3.952176328550411e-05 0.2784525190719406 0.9604499950859078
-4.359413477094128e-05 0.27844706404182 0.960451576408744
-4.842689365074783e-05 0.2784395612766157 0.960453751292024
-5.38345287760907e-05 0.2784296350546511 0.9604566286018212
-5.964288793808502e-05 0.278416982247713 0.9604602961282689
-6.564760095448877e-05 0.2784013800212545 0.9604648183523711
-7.16238492417067e-05 0.2783827055944008 0.9604702307182481
-7.72889252781018e-05 0.2783609839835651 0.9604765258048334
-8.239748434809964e-05 0.2783363143932999 0.9604836746663673
-8.666770574246118e-05 0.2783089632287803 0.9604915998983174
-8.984401552997396e-05 0.2782793508511877 0.9605001794991472
-9.169660251510171e-05 0.2782480563265146 0.9605092455266889
-9.204040740182479e-05 0.2782157280129237 0.9605186100304365
-9.070885636174062e-05 0.2781831754307527 0.9605280384659086
-8.760402535082865e-05 0.2781512614292345 0.9605372809479389
-8.276162599252849e-05 0.2781209508918359 0.960546058148975
-7.626080034725462e-05 0.2780931046759119 0.9605541209718493
-6.827583209725982e-05 0.2780685970606425 0.9605612165120639
-5.912150454834151e-05 0.2780481381204586 0.9605671394506442
-4.916989411495977e-05 0.2780323004295019 0.9605717242872603
-3.889826543817475e-05 0.2780214195110406 0.9605748741144493
-2.880894535943527e-05 0.2780156430172312 0.9605765463552395
-1.943654063613978e-05 0.2780148104024029 0.960576787570435
-1.128826417215314e-05 0.2780185298046453 0.9605757112054407
-4.876911438454636e-06 0.2780261703413828 0.9605734998330528
-6.514643937053166e-07 0.2780368909344192 0.9605703968367425
1.017992037074159e-06 0.278049643082232 0.9605667056382948
-2.401449613295376e-07 0.2780632999141708 0.9605627523700802
-4.777136591690897e-06 0.2780765736503651 0.9605589097832842
-1.295935001153185e-05 0.2780881219139865 0.9605555664730732
-2.523240281667371e-05 0.2780965679535271 0.9605531209963323
-4.220683392097145e-05 0.2781004788081195 0.9605519881324892
-6.474687410907173e-05 0.2780983642147567 0.9605525990953948
-9.410357518684273e-05 0.2780885761120221 0.9605554304570375
-0.0001321317647790419 0.2780693244949158 0.9605609992687283
-0.000181494938140908 0.2780384179504166 0.9605699376949169
-0.0002460883446822193 0.2779932504224175 0.960582995976977
-0.0003315213170573777 0.2779304244594945 0.9606011499334055
-0.0004459218976971606 0.2778456448031047 0.960625628857365
-0.0006008149464914955 0.2777331955721201 0.9606580614863428
-0.0008128110815116272 0.2775856717352885 0.9607005434501504
-0.00110544977898538 0.2773933214591899 0.9607558083043912
-0.001512358942015052 0.2771435622229402 0.9608273303194542
-0.002081340434223684 0.2768202365187981 0.9609194683612529
-0.002880441797788038 0.2764029288615184 0.961037524746991
-0.00400640989309185 0.2758662410313251 0.9611876849705342
-0.00559709241476669 0.2751791883447925 0.9613766623225267
-0.007848697851254456 0.2743052425012368 0.961610644636579
-0.01104092953729513 0.2732031860871909 0.961892986244707
-0.01557268169889959 0.2718291106659701 0.9622195311773981
-0.02201273124574749 0.2701414181010743 0.9625689865611933
-0.03117206345933151 0.2681103482171595 0.9628837643446692
-0.04420651668744401 0.2657335620609815 0.9630324282581271
-0.06276040316259746 0.2630610731338721 0.9627356872976732
-0.08916318636572729 0.2602332127996775 0.9614200960834279
-0.1266861540401832 0.2575319316532531 0.9579289757353886
-0.1798424523835668 0.2554357988565178 0.9499522330007949
-0.254657025778423 0.2546307865186891 0.9329056553470779
-0.3588496198833259 0.2558132448495112 0.8976561335328557
0.3609101407321116 0.180785131459885 0.9149101631087934
0.2554826387903951 0.1798285467789158 0.9499422693196041
0.180328947127971 0.1802936390958848 0.9669414018074104
0.1271145315692093 0.1818093611147204 0.975083202642214
0.08958671090873992 0.1838983976038243 0.9788542284667821
0.0631705603746765 0.1861754680076933 0.9804836436239338
0.04458728785367719 0.1883885283710421 0.9810819212176146
0.03151332841511364 0.1903980440684069 0.9812010471596153
0.02231123475870199 0.1921433175065928 0.9811132219785352
0.01583000006553283 0.1936129983726267 0.9809502627346026
0.01126127035300035 0.1948235164532698 0.9807736646274813
0.008037467941472436 0.1958046852040635 0.9806099756586341
0.005760015179020165 0.1965908514808427 0.9804686937068284
0.004148842529344405 0.1972158564941783 0.9803513110374943
0.003007090590461146 0.1977103661320551 0.9802558689087808
0.002196303855495318 0.1981008576495721 0.9801791807867977
0.001619024392529775 0.1984094083640237 0.9801178936396651
0.001206643361785371 0.1986539033957134 0.9800689622049275
0.0009108032857600904 0.1988486092787173 0.9800297959885171
0.000697404326780544 0.1990047178128835 0.9799982836288128
0.000542407974608115 0.1991308690366313 0.9799727561469781
0.0004288406850005837 0.1992337519315681 0.9799519009558257
0.0003447377251588959 0.1993184269733751 0.9799347150829791
0.0002816470979820954 0.1993887333213729 0.9799204323308145
0.0002336051218163241 0.1994476270018792 0.9799084597614035
0.0001964208816390392 0.1994973148224785 0.9798983532986764
0.0001671221888235685 0.1995395099605701 0.9798897672875603
0.0001436067836220062 0.1995755557853647 0.9798824301466242
0.0001243974769941068 0.1996064659883874 0.9798761366932526
0.0001084370162080106 0.1996330854632852 0.9798707156711143
9.496078888539123e-05 0.1996560759629611 0.9798660328399593
8.34127075404969e-05 0.1996759786734105 0.9798619783332422
7.339602157754125e-05 0.1996932447314938 0.9798584605041848
6.459670430089823e-05 0.1997082175182248 0.9798554095798822
5.676888478472711e-05 0.1997212021928532 0.9798527635170169
4.971726292612716e-05 0.1997324162211181 0.9798504781029946
4.326289797481229e-05 0.1997420291848779 0.9798485188565773
3.728305621484701e-05 0.1997501748858223 0.9798468585667134
3.168933781027673e-05 0.1997569383795654 0.979845479943143
2.641697924517238e-05 0.1997624069405186 0.9798443652312715
2.14081365400683e-05 0.1997666304753759 0.9798435042853557
1.659591886255223e-05 0.19976965918766 0.979842886891884
1.194210933661326e-05 0.1997715351455672 0.9798425044888435
7.402236247432788e-06 0.1997722891417583 0.9798423508076531
2.935149024633177e-06 0.1997719585231929 0.9798424182383575
-1.459081420647903e-06 0.1997705402042552 0.979842707409904
-5.799155998807745e-06 0.1997680287472672 0.9798432194268634
-1.011251842569803e-05 0.1997644131047085 0.9798439565332165
-1.441998052788389e-05 0.1997596254725297 0.9798449325393984
-1.873472486213684e-05 0.1997536113849069 0.9798461585308671
-2.302269431881799e-05 0.1997462913527825 0.9798476506890059
-2.726049113623966e-05 0.199737572008916 0.979849428016799
-3.13894324425368e-05 0.1997274268658411 0.9798514958769279
-3.532588722636671e-05 0.1997158222052807 0.9798538611001897
-3.900792945545292e-05 0.1997027873547592 0.9798565176601731
-4.23264464204608e-05 0.1996884457147173 0.9798594403568872
-4.518126086092721e-05 0.1996729557963386 0.9798625968380499
-4.747970153040526e-05 0.1996565570881255 0.979865938257573
-4.913322695818965e-05 0.1996395880066087 0.979869395627028
-5.005542335859228e-05 0.1996224338913188 0.9798728904208751
-5.021455351018825e-05 0.199605465069 0.979876347195444
-4.962754589639453e-05 0.1995891891477208 0.9798796625670225
-4.832224919772028e-05 0.1995740593915855 0.9798827442520475
-4.642057597046587e-05 0.1995603314757834 0.9798855402272273
-4.404057210509914e-05 0.1995483844515857 0.9798879733536837
-4.137143114727542e-05 0.1995384884626389 0.97988998867753
-3.865908310381364e-05 0.1995305727726959 0.9798916006551309
-3.608153312915926e-05 0.1995246899712251 0.9798927986213641
-3.395112852647921e-05 0.1995208255234558 0.9798935855641465
-3.25747526082282e-05 0.1995184475155245 0.9798940698054457
-3.200751982888038e-05 0.1995170557593253 0.979894353201736
-3.246089599419743e-05 0.1995163109687318 0.9798945048339226
-3.413372604175096e-05 0.1995156056428048 0.9798946483882198
-3.699055714727994e-05 0.1995142367131393 0.9798949270102747
-4.105484542321287e-05 0.1995116145274478 0.9798954607421907
-4.630885230153724e-05 0.1995071180503262 0.9798963760024541
-5.257073029443896e-05 0.1995001493145681 0.9798977944968459
-5.964857998333737e-05 0.1994902252579898 0.9798998145058314
-6.733231363690148e-05 0.1994769538151347 0.9799025157448029
-7.534246868966474e-05 0.1994599973101979 0.979905966813412
-8.334511326501199e-05 0.1994391697806178 0.979910205381498
-9.102061906267107e-05 0.1994144836749805 0.9799152286886288
-9.800606144087634e-05 0.1993860403315601 0.9799210158557234
-0.0001039696328652802 0.1993541550841743 0.9799275024413745
-0.0001085233242007431 0.1993193184140995 0.979934588393341
-0.0001113329968950745 0.1992821948164747 0.9799421383092431
-0.000112143841208406 0.1992436415083545 0.9799499776734772
-0.000110701736758705 0.1992046425171616 0.9799579063126818
-0.0001068558874457505 0.1991663403605353 0.9799656919755969
-0.000100596884484751 0.1991299135042991 0.9799730952572303
-9.203512204132855e-05 0.1990965489924797 0.9799798751550058
-8.136543678874324e-05 0.1990673403386336 0.9799858097902069
-6.904209573603995e-05 0.1990433369182688 0.9799906863137164
-5.556902217444857e-05 0.1990252611169219 0.979994358325304
-4.151945091166697e-05 0.199013599602323 0.9799967272646685
-2.765576372046744e-05 0.1990085836311291 0.9799977463628629
-1.466521511347873e-05 0.1990100038383469 0.979997458240169
-3.226935291090861e-06 0.1990173826522933 0.9799959598854566
5.975838175554106e-06 0.1990299535547361 0.9799934068922547
1.240464382644054e-05 0.19904660356959 0.9799900251806315
1.557947824474606e-05 0.1990660587322977 0.9799860733796519
1.510068337575664e-05 0.1990868851942283 0.9799818426458875
1.061127346485371e-05 0.1991075810164913 0.9799776380454616
1.78782194979265e-06 0.1991265442740522 0.9799737850382922
-1.177643766712334e-05 0.1991422327839817 0.9799705969992801
-3.062208206207449e-05 0.1991530785011351 0.9799683925442741
-5.55538466182237e-05 0.1991574684902802 0.979967499286743
-8.774694341670936e-05 0.1991538189766037 0.9799682386115927
-0.0001290195016380731 0.1991403558058495 0.979970970000381
-0.000182052853404152 0.1991151154908896 0.9799760903408856
-0.000250730870473492 0.1990757204727672 0.9799840787748947
-0.0003407703225281466 0.1990191954552545 0.9799955324979448
-0.0004603746786637166 0.1989417233846992 0.9800112135847633
-0.0006212999501493192 0.1988383009010943 0.9800321138009392
-0.0008403697135077791 0.1987023940518762 0.9800595147116307
-0.001141586217873827 0.1985255265442438 0.9800950525797167
-0.00155889715757868 0.1982966424361458 0.9801408120460053
-0.002140712703456828 0.1980017033402733 0.9801993383100559
-0.002955679913683257 0.1976229495202846 0.980273652496664
-0.00410120582586079 0.1971385552647838 0.9803670588809515
-0.00571588139534086 0.1965223269203069 0.9804826891494322
-0.007996597869730294 0.1957435418554013 0.9806225166925406
-0.0112232767589607 0.1947686603268983 0.9807849953038927
-0.01579451867997814 0.1935636979063375 0.9809605639537663
-0.02227788903014914 0.1920987950451398 0.9811226980365735
-0.03148159482729828 0.1903576528008008 0.9812099027258639
-0.0445566411669099 0.1883518342550854 0.9810903588664336
-0.06314053171150888 0.1861419802176101 0.9804919359463667
-0.08955675317504791 0.1838675936354471 0.9788627564533513
-0.1270842379087125 0.1817807631433016 0.9750924831143968
-0.1802981911541644 0.1802667201590908 0.9669521559361768
-0.2554516691209679 0.179802667623535 0.9499554965674821
-0.3608800823414468 0.1807596173026338 0.9149270609845549
0.3639891398522409 0.1272597917992784 0.922668332317106
0.2575638052822544 0.1266504698533922 0.9579251247850425
0.1818307891203857 0.1270547872147329 0.9750869936439908
0.1282790842295732 0.1282288620357472 0.9834133594222926
0.09052869110565318 0.1298512942173117 0.9873921194119316
0.06394401047211759 0.1316444985833514 0.9892324749610069
0.04522223397161622 0.1334138701678431 0.9900281252577898
0.03203124577382453 0.1350433489123309 0.9903218129520923
0.02273037793274959 0.1364765899405815 0.9903824868792986
0.01616678425673889 0.137697216325262 0.9903424214397106
0.01153043680221058 0.1387128908470285 0.9902655113352226
0.008251965504798387 0.1395439187213524 0.9901814984199592
0.005930923883333679 0.1402157938880114 0.9901032043611636
0.004285411207158378 0.1407547263209332 0.9900352227416478
0.003116865127198885 0.1411851049207223 0.9899783084998899
0.002285313020696303 0.14152835359202 0.9899315645406651
0.00169200018864911 0.1418025229478599 0.9898935203449828
0.001267226463675087 0.142022360413553 0.9898626385916646
0.0009617414974042252 0.1421996969526235 0.9898375226469613
0.0007407534283724889 0.1423438481832958 0.9898169932713465
0.000579701649122834 0.1424619953160272 0.9898001029685609
0.0004612005389208107 0.1425597044168846 0.9897860970788755
0.0003729839816150715 0.1426411962425069 0.9897743934945253
0.0003063951636187817 0.1427096890207367 0.9897645431018469
0.0002553227303727126 0.1427676549552401 0.9897561980148872
0.0002154623484966244 0.142816966844187 0.9897490932339381
0.0001837835735561454 0.1428591136987696 0.9897430170790797
0.0001581537166465603 0.1428952589407961 0.9897378036427851
0.0001370618044055232 0.1429263083082937 0.9897333234803322
0.0001194254886129979 0.1429530526043957 0.9897294632820817
0.0001044701127966934 0.1429761073677911 0.9897261347503908
9.161819265974077e-05 0.1429959878430291 0.9897232638808198
8.043023834274661e-05 0.1430131486656986 0.9897207852923465
7.057107626587255e-05 0.1430279282435435 0.9897186503052686
6.177550289378525e-05 0.1430406475443231 0.9897168126963832
5.384031227036908e-05 0.1430515291065655 0.9897152404209474
4.659313709309309e-05 0.1430607628643426 0.989713906115172
3.990296503627762e-05 0.1430684940264441 0.9897127888558166
3.36442853293585e-05 0.1430748111229423 0.9897118758963115
2.771851152323086e-05 0.1430798109035598 0.9897111532884154
2.206871157238378e-05 0.1430835415543088 0.9897106140934572
1.662537612966869e-05 0.1430860555956177 0.9897102507389141
1.133871690060013e-05 0.1430873863573066 0.9897100584195697
6.17813756546385e-06 0.1430875325603561 0.9897100373279132
1.098229745367491e-06 0.1430865051444704 0.989710185884906
-3.940409158133408e-06 0.1430842855679566 0.9897105067685096
-8.995018815122655e-06 0.1430808418798137 0.9897110045897503
-1.409854977296048e-05 0.1430761197764505 0.989711687185185
-1.92555138413325e-05 0.1430700105747233 0.9897125702462171
-2.449651237387409e-05 0.1430624160383813 0.9897136679450181
-2.977687210915162e-05 0.1430532502337394 0.989714992667536
-3.504548712092953e-05 0.1430424146598151 0.9897165586066057
-4.023815735062828e-05 0.1430298569933389 0.989718373270576
-4.526139206170624e-05 0.1430155145554945 0.9897204456551522
-5.000396433149726e-05 0.1429994150385646 0.9897227716882298
-5.427450215268235e-05 0.1429816885667699 0.9897253324983015
-5.79280272280911e-05 0.1429625386640058 0.9897280986124855
-6.078672667581857e-05 0.1429422612281962 0.9897310272290868
-6.271429702488267e-05 0.1429212352464042 0.9897340635658443
-6.360628842314736e-05 0.1428999571033557 0.989737135917461
-6.337994180681921e-05 0.1428788873224678 0.9897401777943927
-6.203881381572841e-05 0.1428585775917174 0.9897431095792767
-5.963156842114221e-05 0.1428396920210701 0.989745835468582
-5.630912037184975e-05 0.1428227478688811 0.9897482808878552
-5.224501287531584e-05 0.1428081373725492 0.9897503893258346
-4.776758937106839e-05 0.1427961541043336 0.9897521185080981
-4.322501247987703e-05 0.1427870216320998 0.9897534362582594
-3.893362820578164e-05 0.1427808743838289 0.9897543232511599
-3.530563697740266e-05 0.1427774100830484 0.9897548231372701
-3.27014682337159e-05 0.1427760459636722 0.9897550200072707
-3.132116268878338e-05 0.1427764589456577 0.9897549604775535
-3.151661322427106e-05 0.1427780024896741 0.9897547378071807
-3.339806213764854e-05 0.1427797188341394 0.9897544901510742
-3.702377395004201e-05 0.1427807970195376 0.9897543344849292
-4.246590922172286e-05 0.1427803995862754 0.9897543915995672
-4.956918209525523e-05 0.1427776581489117 0.9897547867408414
-5.811566782561501e-05 0.1427717980568211 0.9897556316092326
-6.792455630209197e-05 0.1427621042951744 0.989757029256912
-7.865927522307956e-05 0.1427480025378261 0.9897590623905288
-8.992369476757477e-05 0.1427290535360698 0.9897617941658622
-0.0001012804778467211 0.1427049991095537 0.9897652615501348
-0.0001123202025594056 0.1426757519117121 0.9897694767978042
-0.0001224877447601685 0.1426414327007648 0.9897744221153754
-0.0001313106025461138 0.1426024170280405 0.9897800429465559
-0.0001382520627455755 0.1425592910800066 0.9897862544070475
-0.0001428055208437064 0.1425128746727996 0.9897929380224317
-0.000144517036909673 0.1424643243407706 0.98979992695744
-0.0001430229440469166 0.1424149296122374 0.9898070354205302
-0.0001380912404775593 0.1423662324179041 0.989814041523932
-0.0001295911851317815 0.1423198058513075 0.9898207191550248
-0.0001176768794976096 0.1422773832637734 0.989826819379918
-0.0001026510310493025 0.142240468233099 0.9898321265040827
-8.508452056090188e-05 0.1422105319865696 0.9898364295946683
-6.573574965240534e-05 0.1421886442199432 0.9898395754533686